# LAMMPS data file written by OVITO Basic 3.7.4
16128 atoms
2 atom types
-17.20813567 31.1100966191 xlo xhi
-17.00711412 34.01422824 ylo yhi
-9.73467084 29.5471959083 zlo zhi
0.0 20.3190384781 0.0 xy xz yz

Masses

1 6.941  # Li
2 26.981538  # Al

Atoms  # atomic

1 1 -14.6782484327 -13.64317461 -6.8920235585
2 1 -12.0049907332 -16.11927523 -9.3038291762
3 1 -12.0049907332 -13.64317461 -9.3038291762
4 1 -14.6782484327 -16.11927523 -6.8920235585
5 1 -11.6583588222 -15.76906374 -6.892023553
6 1 -15.0248802438 -13.99338584 -9.3038291712
7 1 -15.0248802438 -15.76906374 -9.3038291712
8 1 -11.6583588222 -13.99338584 -6.892023553
9 1 -14.0748248206 -17.00711412 -8.5361435836
10 1 -12.6084142751 -17.00711412 -7.6597092007
11 1 -11.0549353001 -14.88122486 -8.5361435786
12 1 -15.6283037956 -14.88122486 -7.6597092057
13 1 -8.6384694016 -13.64317461 -6.8920235585
14 1 -5.9652116921 -16.11927523 -9.3038291762
15 1 -5.9652116921 -13.64317461 -9.3038291762
16 1 -8.6384694016 -16.11927523 -6.8920235585
17 1 -5.6185797911 -15.76906374 -6.892023553
18 1 -8.9851012126 -13.99338584 -9.3038291712
19 1 -8.9851012126 -15.76906374 -9.3038291712
20 1 -5.6185797911 -13.99338584 -6.892023553
21 1 -8.0350457895 -17.00711412 -8.5361435836
22 1 -6.5686352439 -17.00711412 -7.6597092007
23 1 -5.015156269 -14.88122486 -8.5361435786
24 1 -9.5885247645 -14.88122486 -7.6597091957
25 1 -14.6782484327 -9.39139608 -6.8920235585
26 1 -12.0049907332 -11.8674967 -9.3038291762
27 1 -12.0049907332 -9.39139608 -9.3038291762
28 1 -14.6782484327 -11.8674967 -6.8920235585
29 1 -11.6583588222 -11.51728521 -6.892023553
30 1 -15.0248802438 -9.74160731 -9.3038291712
31 1 -15.0248802438 -11.51728521 -9.3038291712
32 1 -11.6583588222 -9.74160731 -6.892023553
33 1 -14.0748248206 -12.75533559 -8.5361435836
34 1 -12.6084142751 -12.75533559 -7.6597092007
35 1 -11.0549353001 -10.62944633 -8.5361435786
36 1 -15.6283037956 -10.62944633 -7.6597092057
37 1 -8.6384694016 -9.39139608 -6.8920235585
38 1 -5.9652116921 -11.8674967 -9.3038291762
39 1 -5.9652116921 -9.39139608 -9.3038291762
40 1 -8.6384694016 -11.8674967 -6.8920235585
41 1 -5.6185797911 -11.51728521 -6.892023553
42 1 -8.9851012126 -9.74160731 -9.3038291712
43 1 -8.9851012126 -11.51728521 -9.3038291712
44 1 -5.6185797911 -9.74160731 -6.892023553
45 1 -8.0350457895 -12.75533559 -8.5361435836
46 1 -6.5686352439 -12.75533559 -7.6597092007
47 1 -5.015156269 -10.62944633 -8.5361435786
48 1 -9.5885247645 -10.62944633 -7.6597091957
49 1 -12.9849952296 -13.64317461 -3.6185346628
50 1 -10.31173752 -16.11927523 -6.0303402805
51 1 -10.31173752 -13.64317461 -6.0303402805
52 1 -12.9849952296 -16.11927523 -3.6185346628
53 1 -9.965105619 -15.76906374 -3.6185346573
54 1 -13.3316270406 -13.99338584 -6.0303402755
55 1 -13.3316270406 -15.76906374 -6.0303402755
56 1 -9.965105619 -13.99338584 -3.6185346573
57 1 -12.3815716175 -17.00711412 -5.2626546879
58 1 -10.9151610719 -17.00711412 -4.386220305
59 1 -9.3616820969 -14.88122486 -5.2626546829
60 1 -13.9350505924 -14.88122486 -4.38622031
61 1 -6.9452161984 -13.64317461 -3.6185346628
62 1 -4.2719584889 -16.11927523 -6.0303402805
63 1 -4.2719584889 -13.64317461 -6.0303402805
64 1 -6.9452161984 -16.11927523 -3.6185346628
65 1 -3.9253265879 -15.76906374 -3.6185346574
66 1 -7.2918480095 -13.99338584 -6.0303402755
67 1 -7.2918480095 -15.76906374 -6.0303402755
68 1 -3.9253265879 -13.99338584 -3.6185346574
69 1 -6.3417925764 -17.00711412 -5.2626546779
70 1 -4.8753820407 -17.00711412 -4.386220305
71 1 -3.3219030658 -14.88122486 -5.262654683
72 1 -7.8952715613 -14.88122486 -4.3862203
73 1 -12.9849952296 -9.39139608 -3.6185346628
74 1 -10.31173752 -11.8674967 -6.0303402805
75 1 -10.31173752 -9.39139608 -6.0303402805
76 1 -12.9849952296 -11.8674967 -3.6185346628
77 1 -9.965105619 -11.51728521 -3.6185346573
78 1 -13.3316270406 -9.74160731 -6.0303402755
79 1 -13.3316270406 -11.51728521 -6.0303402755
80 1 -9.965105619 -9.74160731 -3.6185346573
81 1 -12.3815716175 -12.75533559 -5.2626546879
82 1 -10.9151610719 -12.75533559 -4.386220305
83 1 -9.3616820969 -10.62944633 -5.2626546829
84 1 -13.9350505924 -10.62944633 -4.38622031
85 1 -6.9452161984 -9.39139608 -3.6185346628
86 1 -4.2719584889 -11.8674967 -6.0303402805
87 1 -4.2719584889 -9.39139608 -6.0303402805
88 1 -6.9452161984 -11.8674967 -3.6185346628
89 1 -3.9253265879 -11.51728521 -3.6185346574
90 1 -7.2918480095 -9.74160731 -6.0303402755
91 1 -7.2918480095 -11.51728521 -6.0303402755
92 1 -3.9253265879 -9.74160731 -3.6185346574
93 1 -6.3417925764 -12.75533559 -5.2626546779
94 1 -4.8753820407 -12.75533559 -4.386220305
95 1 -3.3219030658 -10.62944633 -5.262654683
96 1 -7.8952715613 -10.62944633 -4.3862203
97 1 -11.2917420264 -13.64317461 -0.3450457671
98 1 -8.6184843168 -16.11927523 -2.7568513848
99 1 -8.6184843168 -13.64317461 -2.7568513848
100 1 -11.2917420264 -16.11927523 -0.3450457671
101 1 -8.2718524158 -15.76906374 -0.3450457617
102 1 -11.6383738374 -13.99338584 -2.7568513798
103 1 -11.6383738374 -15.76906374 -2.7568513798
104 1 -8.2718524158 -13.99338584 -0.3450457617
105 1 -10.6883184043 -17.00711412 -1.9891657922
106 1 -9.2219078687 -17.00711412 -1.1127314093
107 1 -7.6684288937 -14.88122486 -1.9891657873
108 1 -12.2417973893 -14.88122486 -1.1127314044
109 1 -5.2519629853 -13.64317461 -0.3450457671
110 1 -2.5787052857 -16.11927523 -2.7568513748
111 1 -2.5787052857 -13.64317461 -2.7568513748
112 1 -5.2519629853 -16.11927523 -0.3450457671
113 1 -2.2320733847 -15.76906374 -0.3450457617
114 1 -5.5985948063 -13.99338584 -2.7568513798
115 1 -5.5985948063 -15.76906374 -2.7568513798
116 1 -2.2320733847 -13.99338584 -0.3450457617
117 1 -4.6485393732 -17.00711412 -1.9891657822
118 1 -3.1821288376 -17.00711412 -1.1127314094
119 1 -1.6286498526 -14.88122486 -1.9891657872
120 1 -6.2020183482 -14.88122486 -1.1127314043
121 1 -11.2917420264 -9.39139608 -0.3450457671
122 1 -8.6184843168 -11.8674967 -2.7568513848
123 1 -8.6184843168 -9.39139608 -2.7568513848
124 1 -11.2917420264 -11.8674967 -0.3450457671
125 1 -8.2718524158 -11.51728521 -0.3450457617
126 1 -11.6383738374 -9.74160731 -2.7568513798
127 1 -11.6383738374 -11.51728521 -2.7568513798
128 1 -8.2718524158 -9.74160731 -0.3450457617
129 1 -10.6883184043 -12.75533559 -1.9891657922
130 1 -9.2219078687 -12.75533559 -1.1127314093
131 1 -7.6684288937 -10.62944633 -1.9891657873
132 1 -12.2417973893 -10.62944633 -1.1127314044
133 1 -5.2519629853 -9.39139608 -0.3450457671
134 1 -2.5787052857 -11.8674967 -2.7568513748
135 1 -2.5787052857 -9.39139608 -2.7568513748
136 1 -5.2519629853 -11.8674967 -0.3450457671
137 1 -2.2320733847 -11.51728521 -0.3450457617
138 1 -5.5985948063 -9.74160731 -2.7568513798
139 1 -5.5985948063 -11.51728521 -2.7568513798
140 1 -2.2320733847 -9.74160731 -0.3450457617
141 1 -4.6485393732 -12.75533559 -1.9891657822
142 1 -3.1821288376 -12.75533559 -1.1127314094
143 1 -1.6286498526 -10.62944633 -1.9891657872
144 1 -6.2020183482 -10.62944633 -1.1127314043
145 2 -16.3615090634 -17.00711412 -8.0979263921
146 2 -13.3416195529 -14.88122486 -8.0979263872
147 2 -10.3217300323 -17.00711412 -8.0979263922
148 2 -7.3018405117 -14.88122486 -8.0979263872
149 2 -16.3615090634 -12.75533559 -8.0979263921
150 2 -13.3416195529 -10.62944633 -8.0979263872
151 2 -10.3217300323 -12.75533559 -8.0979263922
152 2 -7.3018405117 -10.62944633 -8.0979263872
153 2 -14.6682558602 -17.00711412 -4.8244374965
154 2 -11.6483663397 -14.88122486 -4.8244374915
155 2 -8.6284768291 -17.00711412 -4.8244374965
156 2 -5.6085873086 -14.88122486 -4.8244374915
157 2 -14.6682558602 -12.75533559 -4.8244374965
158 2 -11.6483663397 -10.62944633 -4.8244374915
159 2 -8.6284768291 -12.75533559 -4.8244374965
160 2 -5.6085873086 -10.62944633 -4.8244374915
161 2 -12.9750026571 -17.00711412 -1.5509486008
162 2 -9.9551131365 -14.88122486 -1.5509485958
163 2 -6.9352236259 -17.00711412 -1.5509486008
164 2 -3.9153341054 -14.88122486 -1.5509485958
165 2 -12.9750026571 -12.75533559 -1.5509486008
166 2 -9.9551131365 -10.62944633 -1.5509485958
167 2 -6.9352236259 -12.75533559 -1.5509486008
168 2 -3.9153341054 -10.62944633 -1.5509485958
169 1 -9.5984888132 -13.64317461 2.9284431286
170 1 -6.9252311137 -16.11927523 0.5166375109
171 1 -6.9252311137 -13.64317461 0.5166375109
172 1 -9.5984888132 -16.11927523 2.9284431286
173 1 -6.5785992027 -15.76906374 2.9284431341
174 1 -9.9451206242 -13.99338584 0.5166375159
175 1 -9.9451206242 -15.76906374 0.5166375159
176 1 -6.5785992027 -13.99338584 2.9284431341
177 1 -8.9950652011 -17.00711412 1.2843231035
178 1 -7.5286546555 -17.00711412 2.1607574864
179 1 -5.9751756806 -14.88122486 1.2843231085
180 1 -10.5485441761 -14.88122486 2.1607574814
181 1 -3.5587097821 -13.64317461 2.9284431286
182 1 -0.8854520725 -16.11927523 0.5166375109
183 1 -0.8854520725 -13.64317461 0.5166375109
184 1 -3.5587097821 -16.11927523 2.9284431286
185 1 -0.5388201715 -15.76906374 2.928443134
186 1 -3.9053415931 -13.99338584 0.5166375159
187 1 -3.9053415931 -15.76906374 0.5166375159
188 1 -0.5388201715 -13.99338584 2.928443134
189 1 -2.95528617 -17.00711412 1.2843231034
190 1 -1.4888756244 -17.00711412 2.1607574864
191 1 0.0646033506 -14.88122486 1.2843231084
192 1 -4.508765145 -14.88122486 2.1607574913
193 1 -9.5984888132 -9.39139608 2.9284431286
194 1 -6.9252311137 -11.8674967 0.5166375109
195 1 -6.9252311137 -9.39139608 0.5166375109
196 1 -9.5984888132 -11.8674967 2.9284431286
197 1 -6.5785992027 -11.51728521 2.9284431341
198 1 -9.9451206242 -9.74160731 0.5166375159
199 1 -9.9451206242 -11.51728521 0.5166375159
200 1 -6.5785992027 -9.74160731 2.9284431341
201 1 -8.9950652011 -12.75533559 1.2843231035
202 1 -7.5286546555 -12.75533559 2.1607574864
203 1 -5.9751756806 -10.62944633 1.2843231085
204 1 -10.5485441761 -10.62944633 2.1607574814
205 1 -3.5587097821 -9.39139608 2.9284431286
206 1 -0.8854520725 -11.8674967 0.5166375109
207 1 -0.8854520725 -9.39139608 0.5166375109
208 1 -3.5587097821 -11.8674967 2.9284431286
209 1 -0.5388201715 -11.51728521 2.928443134
210 1 -3.9053415931 -9.74160731 0.5166375159
211 1 -3.9053415931 -11.51728521 0.5166375159
212 1 -0.5388201715 -9.74160731 2.928443134
213 1 -2.95528617 -12.75533559 1.2843231034
214 1 -1.4888756244 -12.75533559 2.1607574864
215 1 0.0646033506 -10.62944633 1.2843231084
216 1 -4.508765145 -10.62944633 2.1607574913
217 1 -7.90523561 -13.64317461 6.2019320243
218 1 -5.2319779005 -16.11927523 3.7901264066
219 1 -5.2319779005 -13.64317461 3.7901264066
220 1 -7.90523561 -16.11927523 6.2019320243
221 1 -4.8853459995 -15.76906374 6.2019320297
222 1 -8.2518674211 -13.99338584 3.7901264116
223 1 -8.2518674211 -15.76906374 3.7901264116
224 1 -4.8853459995 -13.99338584 6.2019320297
225 1 -7.3018119979 -17.00711412 4.5578119991
226 1 -5.8354014523 -17.00711412 5.4342463821
227 1 -4.2819224774 -14.88122486 4.5578120041
228 1 -8.8552909729 -14.88122486 5.434246377
229 1 -1.8654565789 -13.64317461 6.2019320243
230 1 0.8078011307 -16.11927523 3.7901264066
231 1 0.8078011307 -13.64317461 3.7901264066
232 1 -1.8654565789 -16.11927523 6.2019320243
233 1 1.1544330316 -15.76906374 6.2019320297
234 1 -2.2120883899 -13.99338584 3.7901264116
235 1 -2.2120883899 -15.76906374 3.7901264116
236 1 1.1544330316 -13.99338584 6.2019320297
237 1 -1.2620329568 -17.00711412 4.5578120092
238 1 0.2043775788 -17.00711412 5.434246382
239 1 1.7578565538 -14.88122486 4.5578120041
240 1 -2.8155119418 -14.88122486 5.434246387
241 1 -7.90523561 -9.39139608 6.2019320243
242 1 -5.2319779005 -11.8674967 3.7901264066
243 1 -5.2319779005 -9.39139608 3.7901264066
244 1 -7.90523561 -11.8674967 6.2019320243
245 1 -4.8853459995 -11.51728521 6.2019320297
246 1 -8.2518674211 -9.74160731 3.7901264116
247 1 -8.2518674211 -11.51728521 3.7901264116
248 1 -4.8853459995 -9.74160731 6.2019320297
249 1 -7.3018119979 -12.75533559 4.5578119991
250 1 -5.8354014523 -12.75533559 5.4342463821
251 1 -4.2819224774 -10.62944633 4.5578120041
252 1 -8.8552909729 -10.62944633 5.434246377
253 1 -1.8654565789 -9.39139608 6.2019320243
254 1 0.8078011307 -11.8674967 3.7901264066
255 1 0.8078011307 -9.39139608 3.7901264066
256 1 -1.8654565789 -11.8674967 6.2019320243
257 1 1.1544330316 -11.51728521 6.2019320297
258 1 -2.2120883899 -9.74160731 3.7901264116
259 1 -2.2120883899 -11.51728521 3.7901264116
260 1 1.1544330316 -9.74160731 6.2019320297
261 1 -1.2620329568 -12.75533559 4.5578120092
262 1 0.2043775788 -12.75533559 5.434246382
263 1 1.7578565538 -10.62944633 4.5578120041
264 1 -2.8155119418 -10.62944633 5.434246387
265 1 -6.2119824069 -13.64317461 9.47542092
266 1 -3.5387246973 -16.11927523 7.0636153023
267 1 -3.5387246973 -13.64317461 7.0636153023
268 1 -6.2119824069 -16.11927523 9.47542092
269 1 -3.1920927963 -15.76906374 9.4754209254
270 1 -6.5586142179 -13.99338584 7.0636153073
271 1 -6.5586142179 -15.76906374 7.0636153073
272 1 -3.1920927963 -13.99338584 9.4754209254
273 1 -5.6085587847 -17.00711412 7.8313008948
274 1 -4.1421482492 -17.00711412 8.7077352777
275 1 -2.5886692742 -14.88122486 7.8313008998
276 1 -7.1620377698 -14.88122486 8.7077352827
277 1 -0.1722033657 -13.64317461 9.47542092
278 1 2.5010543338 -16.11927523 7.0636153123
279 1 2.5010543338 -13.64317461 7.0636153123
280 1 -0.1722033657 -16.11927523 9.47542092
281 1 2.8476862348 -15.76906374 9.4754209254
282 1 -0.5188351868 -13.99338584 7.0636153072
283 1 -0.5188351868 -15.76906374 7.0636153072
284 1 2.8476862348 -13.99338584 9.4754209254
285 1 0.4312202463 -17.00711412 7.8313009048
286 1 1.897630782 -17.00711412 8.7077352777
287 1 3.4511097669 -14.88122486 7.8313008998
288 1 -1.1222587286 -14.88122486 8.7077352827
289 1 -6.2119824069 -9.39139608 9.47542092
290 1 -3.5387246973 -11.8674967 7.0636153023
291 1 -3.5387246973 -9.39139608 7.0636153023
292 1 -6.2119824069 -11.8674967 9.47542092
293 1 -3.1920927963 -11.51728521 9.4754209254
294 1 -6.5586142179 -9.74160731 7.0636153073
295 1 -6.5586142179 -11.51728521 7.0636153073
296 1 -3.1920927963 -9.74160731 9.4754209254
297 1 -5.6085587847 -12.75533559 7.8313008948
298 1 -4.1421482492 -12.75533559 8.7077352777
299 1 -2.5886692742 -10.62944633 7.8313008998
300 1 -7.1620377698 -10.62944633 8.7077352827
301 1 -0.1722033657 -9.39139608 9.47542092
302 1 2.5010543338 -11.8674967 7.0636153123
303 1 2.5010543338 -9.39139608 7.0636153123
304 1 -0.1722033657 -11.8674967 9.47542092
305 1 2.8476862348 -11.51728521 9.4754209254
306 1 -0.5188351868 -9.74160731 7.0636153072
307 1 -0.5188351868 -11.51728521 7.0636153072
308 1 2.8476862348 -9.74160731 9.4754209254
309 1 0.4312202463 -12.75533559 7.8313009048
310 1 1.897630782 -12.75533559 8.7077352777
311 1 3.4511097669 -10.62944633 7.8313008998
312 1 -1.1222587286 -10.62944633 8.7077352827
313 2 -11.2817494439 -17.00711412 1.7225402949
314 2 -8.2618599333 -14.88122486 1.7225402999
315 2 -5.2419704127 -17.00711412 1.7225402949
316 2 -2.2220808922 -14.88122486 1.7225402999
317 2 -11.2817494439 -12.75533559 1.7225402949
318 2 -8.2618599333 -10.62944633 1.7225402999
319 2 -5.2419704127 -12.75533559 1.7225402949
320 2 -2.2220808922 -10.62944633 1.7225402999
321 2 -9.5884962407 -17.00711412 4.9960291906
322 2 -6.5686067202 -14.88122486 4.9960291956
323 2 -3.5487172096 -17.00711412 4.9960291906
324 2 -0.528827689 -14.88122486 4.9960291956
325 2 -9.5884962407 -12.75533559 4.9960291906
326 2 -6.5686067202 -10.62944633 4.9960291956
327 2 -3.5487172096 -12.75533559 4.9960291906
328 2 -0.528827689 -10.62944633 4.9960291956
329 2 -7.8952430375 -17.00711412 8.2695180863
330 2 -4.875353517 -14.88122486 8.2695180913
331 2 -1.8554640064 -17.00711412 8.2695180863
332 2 1.1644255142 -14.88122486 8.2695180913
333 2 -7.8952430375 -12.75533559 8.2695180863
334 2 -4.875353517 -10.62944633 8.2695180913
335 2 -1.8554640064 -12.75533559 8.2695180863
336 2 1.1644255142 -10.62944633 8.2695180913
337 1 -4.5187291937 -13.64317461 12.7489098157
338 1 -1.8454714941 -16.11927523 10.3371041979
339 1 -1.8454714941 -13.64317461 10.3371041979
340 1 -4.5187291937 -16.11927523 12.7489098157
341 1 -1.4988395831 -15.76906374 12.7489098211
342 1 -4.8653610047 -13.99338584 10.337104203
343 1 -4.8653610047 -15.76906374 10.337104203
344 1 -1.4988395831 -13.99338584 12.7489098211
345 1 -3.9153055816 -17.00711412 11.1047897905
346 1 -2.448895036 -17.00711412 11.9812241735
347 1 -0.895416061 -14.88122486 11.1047897955
348 1 -5.4687845565 -14.88122486 11.9812241684
349 1 1.5210498375 -13.64317461 12.7489098157
350 1 4.194307547 -16.11927523 10.337104198
351 1 4.194307547 -13.64317461 10.337104198
352 1 1.5210498375 -16.11927523 12.7489098157
353 1 4.540939448 -15.76906374 12.7489098211
354 1 1.1744180264 -13.99338584 10.337104203
355 1 1.1744180264 -15.76906374 10.337104203
356 1 4.540939448 -13.99338584 12.7489098211
357 1 2.1244734496 -17.00711412 11.1047897905
358 1 3.5908839952 -17.00711412 11.9812241734
359 1 5.1443629701 -14.88122486 11.1047897955
360 1 0.5709944746 -14.88122486 11.9812241784
361 1 -4.5187291937 -9.39139608 12.7489098157
362 1 -1.8454714941 -11.8674967 10.3371041979
363 1 -1.8454714941 -9.39139608 10.3371041979
364 1 -4.5187291937 -11.8674967 12.7489098157
365 1 -1.4988395831 -11.51728521 12.7489098211
366 1 -4.8653610047 -9.74160731 10.337104203
367 1 -4.8653610047 -11.51728521 10.337104203
368 1 -1.4988395831 -9.74160731 12.7489098211
369 1 -3.9153055816 -12.75533559 11.1047897905
370 1 -2.448895036 -12.75533559 11.9812241735
371 1 -0.895416061 -10.62944633 11.1047897955
372 1 -5.4687845565 -10.62944633 11.9812241684
373 1 1.5210498375 -9.39139608 12.7489098157
374 1 4.194307547 -11.8674967 10.337104198
375 1 4.194307547 -9.39139608 10.337104198
376 1 1.5210498375 -11.8674967 12.7489098157
377 1 4.540939448 -11.51728521 12.7489098211
378 1 1.1744180264 -9.74160731 10.337104203
379 1 1.1744180264 -11.51728521 10.337104203
380 1 4.540939448 -9.74160731 12.7489098211
381 1 2.1244734496 -12.75533559 11.1047897905
382 1 3.5908839952 -12.75533559 11.9812241734
383 1 5.1443629701 -10.62944633 11.1047897955
384 1 0.5709944746 -10.62944633 11.9812241784
385 1 -2.8254759905 -13.64317461 16.0223987113
386 1 -0.1522182809 -16.11927523 13.6105930937
387 1 -0.1522182809 -13.64317461 13.6105930937
388 1 -2.8254759905 -16.11927523 16.0223987113
389 1 0.19441362 -15.76906374 16.0223987168
390 1 -3.1721078015 -13.99338584 13.6105930987
391 1 -3.1721078015 -15.76906374 13.6105930987
392 1 0.19441362 -13.99338584 16.0223987168
393 1 -2.2220523784 -17.00711412 14.3782786862
394 1 -0.7556418328 -17.00711412 15.2547130691
395 1 0.7978371422 -14.88122486 14.3782786912
396 1 -3.7755313533 -14.88122486 15.2547130641
397 1 3.2143030406 -13.64317461 16.0223987113
398 1 5.8875607502 -16.11927523 13.6105930936
399 1 5.8875607502 -13.64317461 13.6105930936
400 1 3.2143030406 -16.11927523 16.0223987113
401 1 6.2341926512 -15.76906374 16.0223987168
402 1 2.8676712296 -13.99338584 13.6105930986
403 1 2.8676712296 -15.76906374 13.6105930986
404 1 6.2341926512 -13.99338584 16.0223987168
405 1 3.8177266627 -17.00711412 14.3782786962
406 1 5.2841371983 -17.00711412 15.2547130691
407 1 6.8376161733 -14.88122486 14.3782786912
408 1 2.2642476777 -14.88122486 15.2547130741
409 1 -2.8254759905 -9.39139608 16.0223987113
410 1 -0.1522182809 -11.8674967 13.6105930937
411 1 -0.1522182809 -9.39139608 13.6105930937
412 1 -2.8254759905 -11.8674967 16.0223987113
413 1 0.19441362 -11.51728521 16.0223987168
414 1 -3.1721078015 -9.74160731 13.6105930987
415 1 -3.1721078015 -11.51728521 13.6105930987
416 1 0.19441362 -9.74160731 16.0223987168
417 1 -2.2220523784 -12.75533559 14.3782786862
418 1 -0.7556418328 -12.75533559 15.2547130691
419 1 0.7978371422 -10.62944633 14.3782786912
420 1 -3.7755313533 -10.62944633 15.2547130641
421 1 3.2143030406 -9.39139608 16.0223987113
422 1 5.8875607502 -11.8674967 13.6105930936
423 1 5.8875607502 -9.39139608 13.6105930936
424 1 3.2143030406 -11.8674967 16.0223987113
425 1 6.2341926512 -11.51728521 16.0223987168
426 1 2.8676712296 -9.74160731 13.6105930986
427 1 2.8676712296 -11.51728521 13.6105930986
428 1 6.2341926512 -9.74160731 16.0223987168
429 1 3.8177266627 -12.75533559 14.3782786962
430 1 5.2841371983 -12.75533559 15.2547130691
431 1 6.8376161733 -10.62944633 14.3782786912
432 1 2.2642476777 -10.62944633 15.2547130741
433 1 -1.1322227873 -13.64317461 19.295887607
434 1 1.5410349222 -16.11927523 16.8840819893
435 1 1.5410349222 -13.64317461 16.8840819893
436 1 -1.1322227873 -16.11927523 19.295887607
437 1 1.8876668232 -15.76906374 19.2958876125
438 1 -1.4788545984 -13.99338584 16.8840819943
439 1 -1.4788545984 -15.76906374 16.8840819943
440 1 1.8876668232 -13.99338584 19.2958876125
441 1 -0.5287991652 -17.00711412 17.6517675819
442 1 0.9376113704 -17.00711412 18.5282019648
443 1 2.4910903453 -14.88122486 17.6517675869
444 1 -2.0822781502 -14.88122486 18.5282019698
445 1 4.9075562538 -13.64317461 19.295887607
446 1 7.5808139533 -16.11927523 16.8840819993
447 1 7.5808139533 -13.64317461 16.8840819993
448 1 4.9075562538 -16.11927523 19.295887607
449 1 7.9274458544 -15.76906374 19.2958876125
450 1 4.5609244328 -13.99338584 16.8840819943
451 1 4.5609244328 -15.76906374 16.8840819943
452 1 7.9274458544 -13.99338584 19.2958876125
453 1 5.5109798659 -17.00711412 17.6517675919
454 1 6.9773904015 -17.00711412 18.5282019648
455 1 8.5308693865 -14.88122486 17.6517675869
456 1 3.9575008909 -14.88122486 18.5282019698
457 1 -1.1322227873 -9.39139608 19.295887607
458 1 1.5410349222 -11.8674967 16.8840819893
459 1 1.5410349222 -9.39139608 16.8840819893
460 1 -1.1322227873 -11.8674967 19.295887607
461 1 1.8876668232 -11.51728521 19.2958876125
462 1 -1.4788545984 -9.74160731 16.8840819943
463 1 -1.4788545984 -11.51728521 16.8840819943
464 1 1.8876668232 -9.74160731 19.2958876125
465 1 -0.5287991652 -12.75533559 17.6517675819
466 1 0.9376113704 -12.75533559 18.5282019648
467 1 2.4910903453 -10.62944633 17.6517675869
468 1 -2.0822781502 -10.62944633 18.5282019698
469 1 4.9075562538 -9.39139608 19.295887607
470 1 7.5808139533 -11.8674967 16.8840819993
471 1 7.5808139533 -9.39139608 16.8840819993
472 1 4.9075562538 -11.8674967 19.295887607
473 1 7.9274458544 -11.51728521 19.2958876125
474 1 4.5609244328 -9.74160731 16.8840819943
475 1 4.5609244328 -11.51728521 16.8840819943
476 1 7.9274458544 -9.74160731 19.2958876125
477 1 5.5109798659 -12.75533559 17.6517675919
478 1 6.9773904015 -12.75533559 18.5282019648
479 1 8.5308693865 -10.62944633 17.6517675869
480 1 3.9575008909 -10.62944633 18.5282019698
481 2 -6.2019898243 -17.00711412 11.543006982
482 2 -3.1821003138 -14.88122486 11.543006987
483 2 -0.1622107932 -17.00711412 11.543006982
484 2 2.8576787273 -14.88122486 11.543006987
485 2 -6.2019898243 -12.75533559 11.543006982
486 2 -3.1821003138 -10.62944633 11.543006987
487 2 -0.1622107932 -12.75533559 11.543006982
488 2 2.8576787273 -10.62944633 11.543006987
489 2 -4.5087366212 -17.00711412 14.8164958777
490 2 -1.4888471006 -14.88122486 14.8164958827
491 2 1.53104241 -17.00711412 14.8164958776
492 2 4.5509319305 -14.88122486 14.8164958827
493 2 -4.5087366212 -12.75533559 14.8164958777
494 2 -1.4888471006 -10.62944633 14.8164958827
495 2 1.53104241 -12.75533559 14.8164958776
496 2 4.5509319305 -10.62944633 14.8164958827
497 2 -2.815483418 -17.00711412 18.0899847733
498 2 0.2044061026 -14.88122486 18.0899847784
499 2 3.2242956132 -17.00711412 18.0899847733
500 2 6.2441851337 -14.88122486 18.0899847783
501 2 -2.815483418 -12.75533559 18.0899847733
502 2 0.2044061026 -10.62944633 18.0899847784
503 2 3.2242956132 -12.75533559 18.0899847733
504 2 6.2441851337 -10.62944633 18.0899847783
505 1 0.5610304259 -13.64317461 22.5693765027
506 1 3.2342881254 -16.11927523 20.157570885
507 1 3.2342881254 -13.64317461 20.157570885
508 1 0.5610304259 -16.11927523 22.5693765027
509 1 3.5809200364 -15.76906374 22.5693765082
510 1 0.2143986148 -13.99338584 20.1575708901
511 1 0.2143986148 -15.76906374 20.1575708901
512 1 3.5809200364 -13.99338584 22.5693765082
513 1 1.164454038 -17.00711412 20.9252564776
514 1 2.6308645836 -17.00711412 21.8016908605
515 1 4.1843435585 -14.88122486 20.9252564826
516 1 -0.389024937 -14.88122486 21.8016908555
517 1 6.600809457 -13.64317461 22.5693765027
518 1 9.2740671666 -16.11927523 20.157570885
519 1 9.2740671666 -13.64317461 20.157570885
520 1 6.600809457 -16.11927523 22.5693765027
521 1 9.6206990675 -15.76906374 22.5693765082
522 1 6.254177646 -13.99338584 20.15757089
523 1 6.254177646 -15.76906374 20.15757089
524 1 9.6206990675 -13.99338584 22.5693765082
525 1 7.2042330691 -17.00711412 20.9252564776
526 1 8.6706436147 -17.00711412 21.8016908605
527 1 10.2241225897 -14.88122486 20.9252564826
528 1 5.6507540941 -14.88122486 21.8016908655
529 1 0.5610304259 -9.39139608 22.5693765027
530 1 3.2342881254 -11.8674967 20.157570885
531 1 3.2342881254 -9.39139608 20.157570885
532 1 0.5610304259 -11.8674967 22.5693765027
533 1 3.5809200364 -11.51728521 22.5693765082
534 1 0.2143986148 -9.74160731 20.1575708901
535 1 0.2143986148 -11.51728521 20.1575708901
536 1 3.5809200364 -9.74160731 22.5693765082
537 1 1.164454038 -12.75533559 20.9252564776
538 1 2.6308645836 -12.75533559 21.8016908605
539 1 4.1843435585 -10.62944633 20.9252564826
540 1 -0.389024937 -10.62944633 21.8016908555
541 1 6.600809457 -9.39139608 22.5693765027
542 1 9.2740671666 -11.8674967 20.157570885
543 1 9.2740671666 -9.39139608 20.157570885
544 1 6.600809457 -11.8674967 22.5693765027
545 1 9.6206990675 -11.51728521 22.5693765082
546 1 6.254177646 -9.74160731 20.15757089
547 1 6.254177646 -11.51728521 20.15757089
548 1 9.6206990675 -9.74160731 22.5693765082
549 1 7.2042330691 -12.75533559 20.9252564776
550 1 8.6706436147 -12.75533559 21.8016908605
551 1 10.2241225897 -10.62944633 20.9252564826
552 1 5.6507540941 -10.62944633 21.8016908655
553 1 2.254283629 -13.64317461 25.8428653984
554 1 4.9275413386 -16.11927523 23.4310597807
555 1 4.9275413386 -13.64317461 23.4310597807
556 1 2.254283629 -16.11927523 25.8428653984
557 1 5.2741732396 -15.76906374 25.8428654039
558 1 1.907651818 -13.99338584 23.4310597857
559 1 1.907651818 -15.76906374 23.4310597857
560 1 5.2741732396 -13.99338584 25.8428654039
561 1 2.8577072412 -17.00711412 24.1987453733
562 1 4.3241177867 -17.00711412 25.0751797562
563 1 5.8775967617 -14.88122486 24.1987453783
564 1 1.3042282662 -14.88122486 25.0751797512
565 1 8.2940626602 -13.64317461 25.8428653984
566 1 10.9673203697 -16.11927523 23.4310597807
567 1 10.9673203697 -13.64317461 23.4310597807
568 1 8.2940626602 -16.11927523 25.8428653984
569 1 11.3139522707 -15.76906374 25.8428654039
570 1 7.9474308491 -13.99338584 23.4310597857
571 1 7.9474308491 -15.76906374 23.4310597857
572 1 11.3139522707 -13.99338584 25.8428654039
573 1 8.8974862822 -17.00711412 24.1987453833
574 1 10.3638968179 -17.00711412 25.0751797562
575 1 11.9173757928 -14.88122486 24.1987453783
576 1 7.3440072973 -14.88122486 25.0751797612
577 1 2.254283629 -9.39139608 25.8428653984
578 1 4.9275413386 -11.8674967 23.4310597807
579 1 4.9275413386 -9.39139608 23.4310597807
580 1 2.254283629 -11.8674967 25.8428653984
581 1 5.2741732396 -11.51728521 25.8428654039
582 1 1.907651818 -9.74160731 23.4310597857
583 1 1.907651818 -11.51728521 23.4310597857
584 1 5.2741732396 -9.74160731 25.8428654039
585 1 2.8577072412 -12.75533559 24.1987453733
586 1 4.3241177867 -12.75533559 25.0751797562
587 1 5.8775967617 -10.62944633 24.1987453783
588 1 1.3042282662 -10.62944633 25.0751797512
589 1 8.2940626602 -9.39139608 25.8428653984
590 1 10.9673203697 -11.8674967 23.4310597807
591 1 10.9673203697 -9.39139608 23.4310597807
592 1 8.2940626602 -11.8674967 25.8428653984
593 1 11.3139522707 -11.51728521 25.8428654039
594 1 7.9474308491 -9.74160731 23.4310597857
595 1 7.9474308491 -11.51728521 23.4310597857
596 1 11.3139522707 -9.74160731 25.8428654039
597 1 8.8974862822 -12.75533559 24.1987453833
598 1 10.3638968179 -12.75533559 25.0751797562
599 1 11.9173757928 -10.62944633 24.1987453783
600 1 7.3440072973 -10.62944633 25.0751797612
601 1 3.9475368322 -13.64317461 29.1163542941
602 1 6.6207945418 -16.11927523 26.7045486764
603 1 6.6207945418 -13.64317461 26.7045486764
604 1 3.9475368322 -16.11927523 29.1163542941
605 1 6.9674264428 -15.76906374 29.1163542996
606 1 3.6009050212 -13.99338584 26.7045486814
607 1 3.6009050212 -15.76906374 26.7045486814
608 1 6.9674264428 -13.99338584 29.1163542996
609 1 4.5509604543 -17.00711412 27.472234269
610 1 6.0173709899 -17.00711412 28.3486686519
611 1 7.5708499649 -14.88122486 27.4722342739
612 1 2.9974814693 -14.88122486 28.3486686569
613 1 9.9873158734 -13.64317461 29.1163542941
614 1 12.6605735729 -16.11927523 26.7045486864
615 1 12.6605735729 -13.64317461 26.7045486864
616 1 9.9873158734 -16.11927523 29.1163542941
617 1 13.0072054739 -15.76906374 29.1163542995
618 1 9.6406840523 -13.99338584 26.7045486814
619 1 9.6406840523 -15.76906374 26.7045486814
620 1 13.0072054739 -13.99338584 29.1163542995
621 1 10.5907394854 -17.00711412 27.472234279
622 1 12.0571500211 -17.00711412 28.3486686518
623 1 13.610629006 -14.88122486 27.472234274
624 1 9.0372605105 -14.88122486 28.3486686569
625 1 3.9475368322 -9.39139608 29.1163542941
626 1 6.6207945418 -11.8674967 26.7045486764
627 1 6.6207945418 -9.39139608 26.7045486764
628 1 3.9475368322 -11.8674967 29.1163542941
629 1 6.9674264428 -11.51728521 29.1163542996
630 1 3.6009050212 -9.74160731 26.7045486814
631 1 3.6009050212 -11.51728521 26.7045486814
632 1 6.9674264428 -9.74160731 29.1163542996
633 1 4.5509604543 -12.75533559 27.472234269
634 1 6.0173709899 -12.75533559 28.3486686519
635 1 7.5708499649 -10.62944633 27.4722342739